# vtk DataFile Version 3.0 
vtk ZeBuLoN vector field output, data_names:dummyData  ; set name: fault_plane_A
ASCII
DATASET UNSTRUCTURED_GRID
POINTS 1998 double
1.105664e+06   -4.140618e+06   -4.679602e+06
1.125697e+06   -4.119035e+06   -4.676953e+06
1.096157e+06   -4.156013e+06   -4.676323e+06
1.079942e+06   -4.171112e+06   -4.674220e+06
1.120967e+06   -4.135899e+06   -4.673568e+06
1.144955e+06   -4.097630e+06   -4.671642e+06
1.053127e+06   -4.191721e+06   -4.669268e+06
1.140263e+06   -4.114232e+06   -4.668934e+06
1.068281e+06   -4.186862e+06   -4.667452e+06
1.157109e+06   -4.088798e+06   -4.665696e+06
1.116855e+06   -4.159805e+06   -4.663461e+06
1.036401e+06   -4.207171e+06   -4.662487e+06
1.166760e+06   -4.074617e+06   -4.662479e+06
1.140310e+06   -4.133627e+06   -4.661318e+06
1.103105e+06   -4.179401e+06   -4.658547e+06
1.178340e+06   -4.062821e+06   -4.656753e+06
1.154581e+06   -4.121215e+06   -4.656390e+06
1.137585e+06   -4.154889e+06   -4.654368e+06
1.084552e+06   -4.197599e+06   -4.653634e+06
1.068264e+06   -4.209967e+06   -4.649906e+06
1.182784e+06   -4.088841e+06   -4.645960e+06
1.175651e+06   -4.111816e+06   -4.644081e+06
1.167768e+06   -4.135422e+06   -4.641374e+06
1.157837e+06   -4.154077e+06   -4.640404e+06
1.132311e+06   -4.183520e+06   -4.640363e+06
1.101304e+06   -4.207932e+06   -4.638622e+06
1.196942e+06   -4.075013e+06   -4.638618e+06
1.054596e+06   -4.230221e+06   -4.637482e+06
1.119106e+06   -4.202170e+06   -4.634606e+06
1.079543e+06   -4.225969e+06   -4.633045e+06
1.155019e+06   -4.178245e+06   -4.630418e+06
1.183295e+06   -4.137878e+06   -4.628391e+06
1.200723e+06   -4.106554e+06   -4.625691e+06
1.211560e+06   -4.082514e+06   -4.624374e+06
1.178984e+06   -4.159982e+06   -4.622014e+06
1.197599e+06   -4.128528e+06   -4.620375e+06
1.135487e+06   -4.210369e+06   -4.619517e+06
1.171851e+06   -4.177950e+06   -4.617703e+06
1.102304e+06   -4.233552e+06   -4.617357e+06
1.150780e+06   -4.201525e+06   -4.616940e+06
1.068028e+06   -4.251430e+06   -4.614961e+06
1.119505e+06   -4.227360e+06   -4.614790e+06
1.219507e+06   -4.101332e+06   -4.611799e+06
1.196606e+06   -4.152681e+06   -4.610838e+06
1.091857e+06   -4.247437e+06   -4.610148e+06
1.215649e+06   -4.122859e+06   -4.607253e+06
1.167652e+06   -4.200531e+06   -4.607224e+06
1.209704e+06   -4.141428e+06   -4.604725e+06
1.192802e+06   -4.178880e+06   -4.600496e+06
1.232871e+06   -4.100693e+06   -4.600453e+06
1.181408e+06   -4.196121e+06   -4.599230e+06
1.155488e+06   -4.221476e+06   -4.598878e+06
1.138115e+06   -4.235327e+06   -4.598366e+06
1.232050e+06   -4.119295e+06   -4.594343e+06
1.079883e+06   -4.275525e+06   -4.589881e+06
1.227879e+06   -4.139132e+06   -4.589384e+06
1.212890e+06   -4.167605e+06   -4.588877e+06
1.119017e+06   -4.258602e+06   -4.587892e+06
1.102098e+06   -4.271038e+06   -4.584729e+06
1.193138e+06   -4.206017e+06   -4.583027e+06
1.205811e+06   -4.191411e+06   -4.581656e+06
1.156550e+06   -4.243463e+06   -4.580234e+06
1.241011e+06   -4.132919e+06   -4.579948e+06
1.179501e+06   -4.226451e+06   -4.579365e+06
1.139567e+06   -4.257521e+06   -4.578424e+06
1.114057e+06   -4.274734e+06   -4.575659e+06
1.238168e+06   -4.155932e+06   -4.571402e+06
1.230412e+06   -4.172333e+06   -4.569941e+06
1.152898e+06   -4.259956e+06   -4.568278e+06
1.087868e+06   -4.297543e+06   -4.567386e+06
1.220191e+06   -4.192766e+06   -4.567244e+06
1.195619e+06   -4.229385e+06   -4.563536e+06
1.109089e+06   -4.291028e+06   -4.563170e+06
1.209112e+06   -4.215431e+06   -4.561560e+06
1.128964e+06   -4.282534e+06   -4.560920e+06
1.168440e+06   -4.261910e+06   -4.556793e+06
1.148818e+06   -4.276633e+06   -4.556019e+06
1.187820e+06   -4.248753e+06   -4.554957e+06
1.247109e+06   -4.176602e+06   -4.550084e+06
1.223443e+06   -4.212695e+06   -4.549030e+06
1.257624e+06   -4.160513e+06   -4.548085e+06
1.236401e+06   -4.201011e+06   -4.545121e+06
1.206730e+06   -4.239379e+06   -4.544269e+06
1.165345e+06   -4.280695e+06   -4.542368e+06
1.178810e+06   -4.270980e+06   -4.541914e+06
1.218951e+06   -4.228145e+06   -4.540870e+06
1.096431e+06   -4.324144e+06   -4.540157e+06
1.116626e+06   -4.315272e+06   -4.537237e+06
1.137292e+06   -4.305512e+06   -4.535816e+06
1.156270e+06   -4.297800e+06   -4.532818e+06
1.260321e+06   -4.181657e+06   -4.531537e+06
1.252154e+06   -4.195565e+06   -4.531213e+06
1.231989e+06   -4.223583e+06   -4.530607e+06
1.205399e+06   -4.257206e+06   -4.530510e+06
1.175569e+06   -4.289483e+06   -4.527915e+06
1.243917e+06   -4.214119e+06   -4.525667e+06
1.195700e+06   -4.275325e+06   -4.525383e+06
1.223882e+06   -4.247754e+06   -4.518020e+06
1.154598e+06   -4.316969e+06   -4.516473e+06
1.104514e+06   -4.350061e+06   -4.513365e+06
1.124094e+06   -4.338823e+06   -4.512558e+06
1.254964e+06   -4.214801e+06   -4.512545e+06
1.267709e+06   -4.196345e+06   -4.512202e+06
1.215626e+06   -4.265772e+06   -4.512091e+06
1.170589e+06   -4.312013e+06   -4.510046e+06
1.242852e+06   -4.232844e+06   -4.509859e+06
1.143367e+06   -4.331911e+06   -4.509464e+06
1.186489e+06   -4.302620e+06   -4.507456e+06
1.201281e+06   -4.297259e+06   -4.500747e+06
1.162912e+06   -4.336846e+06   -4.496117e+06
1.216523e+06   -4.285532e+06   -4.494759e+06
1.257303e+06   -4.234731e+06   -4.493193e+06
1.130819e+06   -4.358463e+06   -4.492431e+06
1.182147e+06   -4.326722e+06   -4.491514e+06
1.244704e+06   -4.253025e+06   -4.491282e+06
1.231495e+06   -4.270291e+06   -4.491181e+06
1.146312e+06   -4.353444e+06   -4.490175e+06
1.195205e+06   -4.317325e+06   -4.489706e+06
1.112434e+06   -4.374014e+06   -4.488198e+06
1.271799e+06   -4.223144e+06   -4.487398e+06
1.179642e+06   -4.350852e+06   -4.476329e+06
1.159885e+06   -4.363668e+06   -4.475430e+06
1.221184e+06   -4.308731e+06   -4.473748e+06
1.209703e+06   -4.323771e+06   -4.473357e+06
1.274015e+06   -4.239935e+06   -4.472582e+06
1.262791e+06   -4.255187e+06   -4.472280e+06
1.138291e+06   -4.379670e+06   -4.470608e+06
1.198930e+06   -4.340820e+06   -4.470259e+06
1.236078e+06   -4.295123e+06   -4.470002e+06
1.252187e+06   -4.278960e+06   -4.466284e+06
1.120257e+06   -4.396912e+06   -4.463808e+06
1.178246e+06   -4.369926e+06   -4.461410e+06
1.154059e+06   -4.384737e+06   -4.459626e+06
1.225835e+06   -4.329752e+06   -4.456599e+06
1.194057e+06   -4.365201e+06   -4.456284e+06
1.238009e+06   -4.317789e+06   -4.454393e+06
1.169485e+06   -4.384148e+06   -4.453200e+06
1.218838e+06   -4.347450e+06   -4.450741e+06
1.271226e+06   -4.275581e+06   -4.450386e+06
1.284934e+06   -4.257367e+06   -4.450094e+06
1.208511e+06   -4.360525e+06   -4.448879e+06
1.253976e+06   -4.307004e+06   -4.448017e+06
1.145903e+06   -4.401302e+06   -4.447849e+06
1.266584e+06   -4.294962e+06   -4.444043e+06
1.186352e+06   -4.385289e+06   -4.443662e+06
1.235396e+06   -4.340896e+06   -4.441963e+06
1.128410e+06   -4.419789e+06   -4.439088e+06
1.206258e+06   -4.381734e+06   -4.435752e+06
1.286364e+06   -4.277014e+06   -4.435132e+06
1.167780e+06   -4.406763e+06   -4.434011e+06
1.256525e+06   -4.332813e+06   -4.430600e+06
1.281338e+06   -4.293341e+06   -4.430344e+06
1.151880e+06   -4.417764e+06   -4.430177e+06
1.298424e+06   -4.267787e+06   -4.428914e+06
1.228707e+06   -4.371095e+06   -4.428522e+06
1.272355e+06   -4.313556e+06   -4.427994e+06
1.247420e+06   -4.354792e+06   -4.423912e+06
1.193845e+06   -4.405076e+06   -4.422322e+06
1.295950e+06   -4.291192e+06   -4.416653e+06
1.136508e+06   -4.441404e+06   -4.415381e+06
1.217463e+06   -4.400262e+06   -4.413935e+06
1.157682e+06   -4.432750e+06   -4.413847e+06
1.291840e+06   -4.311854e+06   -4.409264e+06
1.180628e+06   -4.427779e+06   -4.408931e+06
1.251311e+06   -4.375105e+06   -4.407674e+06
1.265842e+06   -4.358987e+06   -4.405956e+06
1.239566e+06   -4.397079e+06   -4.402425e+06
1.283679e+06   -4.338089e+06   -4.402128e+06
1.203714e+06   -4.422732e+06   -4.401336e+06
1.307191e+06   -4.310559e+06   -4.393469e+06
1.145017e+06   -4.462713e+06   -4.391629e+06
1.225469e+06   -4.420070e+06   -4.391314e+06
1.254439e+06   -4.396756e+06   -4.388581e+06
1.191758e+06   -4.444382e+06   -4.387540e+06
1.167991e+06   -4.458020e+06   -4.385816e+06
1.284699e+06   -4.362354e+06   -4.384843e+06
1.302437e+06   -4.334210e+06   -4.384156e+06
1.271953e+06   -4.383485e+06   -4.381964e+06
1.296406e+06   -4.350954e+06   -4.380124e+06
1.247490e+06   -4.417328e+06   -4.379285e+06
1.212742e+06   -4.442300e+06   -4.377724e+06
1.186101e+06   -4.463996e+06   -4.371675e+06
1.152713e+06   -4.480672e+06   -4.371280e+06
1.316636e+06   -4.330867e+06   -4.370432e+06
1.264836e+06   -4.413254e+06   -4.364769e+06
1.202640e+06   -4.462848e+06   -4.363816e+06
1.301474e+06   -4.367421e+06   -4.363071e+06
1.310606e+06   -4.353679e+06   -4.362377e+06
1.176763e+06   -4.478768e+06   -4.362324e+06
1.291533e+06   -4.383867e+06   -4.361700e+06
1.236453e+06   -4.444363e+06   -4.360815e+06
1.191961e+06   -4.478681e+06   -4.354592e+06
1.220287e+06   -4.461735e+06   -4.354017e+06
1.282809e+06   -4.405800e+06   -4.352990e+06
1.256126e+06   -4.439751e+06   -4.352154e+06
1.322580e+06   -4.350413e+06   -4.352006e+06
1.160342e+06   -4.498206e+06   -4.351205e+06
1.233534e+06   -4.462944e+06   -4.344351e+06
1.318807e+06   -4.372787e+06   -4.340740e+06
1.309189e+06   -4.387621e+06   -4.340414e+06
1.185353e+06   -4.499121e+06   -4.338860e+06
1.274215e+06   -4.434039e+06   -4.338304e+06
1.299491e+06   -4.403208e+06   -4.338238e+06
1.208219e+06   -4.487387e+06   -4.336400e+06
1.333923e+06   -4.363942e+06   -4.331553e+06
1.249042e+06   -4.465672e+06   -4.331322e+06
1.230162e+06   -4.480123e+06   -4.329595e+06
1.291391e+06   -4.425284e+06   -4.328677e+06
1.263837e+06   -4.459352e+06   -4.328108e+06
1.198812e+06   -4.504105e+06   -4.326326e+06
1.169960e+06   -4.521784e+06   -4.324105e+06
1.316588e+06   -4.404624e+06   -4.320172e+06
1.307229e+06   -4.417555e+06   -4.319583e+06
1.327650e+06   -4.392408e+06   -4.318175e+06
1.195036e+06   -4.521787e+06   -4.312312e+06
1.228088e+06   -4.500823e+06   -4.311574e+06
1.210857e+06   -4.513554e+06   -4.310395e+06
1.285537e+06   -4.455823e+06   -4.310148e+06
[...]
POINT_DATA 1998 
SCALARS U double 3 
LOOKUP_TABLE default 
  0.000000e+00  0.000000e+00 -0.000000e+00
  0.000000e+00  0.000000e+00  0.000000e+00
  0.000000e+00  0.000000e+00 -0.000000e+00
  0.000000e+00  0.000000e+00 -0.000000e+00
  0.000000e+00  0.000000e+00  0.000000e+00
  0.000000e+00  0.000000e+00  0.000000e+00
  0.000000e+00  0.000000e+00 -0.000000e+00
  0.000000e+00  0.000000e+00  0.000000e+00
  0.000000e+00  0.000000e+00 -0.000000e+00
  0.000000e+00  0.000000e+00  0.000000e+00
  0.000000e+00  0.000000e+00 -0.000000e+00
  0.000000e+00  0.000000e+00 -0.000000e+00
  0.000000e+00  0.000000e+00  0.000000e+00
  0.000000e+00  0.000000e+00  0.000000e+00
  0.000000e+00  0.000000e+00 -0.000000e+00
  0.000000e+00  0.000000e+00  0.000000e+00
  0.000000e+00  0.000000e+00  0.000000e+00
  0.000000e+00  0.000000e+00  0.000000e+00
  0.000000e+00  0.000000e+00 -0.000000e+00
  0.000000e+00  0.000000e+00 -0.000000e+00
  0.000000e+00  0.000000e+00  0.000000e+00
  0.000000e+00  0.000000e+00  0.000000e+00
  0.000000e+00  0.000000e+00  0.000000e+00
  0.000000e+00  0.000000e+00  0.000000e+00
  0.000000e+00  0.000000e+00  0.000000e+00
  0.000000e+00  0.000000e+00 -0.000000e+00
  0.000000e+00  0.000000e+00  0.000000e+00
  0.000000e+00  0.000000e+00 -0.000000e+00
  0.000000e+00  0.000000e+00  0.000000e+00
  0.000000e+00  0.000000e+00 -0.000000e+00
  0.000000e+00  0.000000e+00  0.000000e+00
  0.000000e+00  0.000000e+00  0.000000e+00
  0.000000e+00  0.000000e+00  0.000000e+00
  0.000000e+00  0.000000e+00  0.000000e+00
  0.000000e+00  0.000000e+00  0.000000e+00
  0.000000e+00  0.000000e+00  0.000000e+00
  0.000000e+00  0.000000e+00  0.000000e+00
  0.000000e+00  0.000000e+00  0.000000e+00
  0.000000e+00  0.000000e+00  0.000000e+00
  0.000000e+00  0.000000e+00  0.000000e+00
  0.000000e+00  0.000000e+00 -0.000000e+00
  0.000000e+00  0.000000e+00  0.000000e+00
  0.000000e+00  0.000000e+00  0.000000e+00
  0.000000e+00  0.000000e+00  0.000000e+00
  0.000000e+00  0.000000e+00  0.000000e+00
  0.000000e+00  0.000000e+00  0.000000e+00
  0.000000e+00  0.000000e+00  0.000000e+00
  0.000000e+00  0.000000e+00  0.000000e+00
  0.000000e+00  0.000000e+00  0.000000e+00
  0.000000e+00  0.000000e+00  0.000000e+00
  0.000000e+00  0.000000e+00  0.000000e+00
  0.000000e+00  0.000000e+00  0.000000e+00
  0.000000e+00  0.000000e+00  0.000000e+00
  0.000000e+00  0.000000e+00  0.000000e+00
  0.000000e+00  0.000000e+00  0.000000e+00
  0.000000e+00  0.000000e+00  0.000000e+00
  0.000000e+00  0.000000e+00  0.000000e+00
  0.000000e+00  0.000000e+00  0.000000e+00
  0.000000e+00  0.000000e+00  0.000000e+00
  0.000000e+00  0.000000e+00  0.000000e+00
  0.000000e+00  0.000000e+00  0.000000e+00
  0.000000e+00  0.000000e+00  0.000000e+00
  0.000000e+00  0.000000e+00  0.000000e+00
  0.000000e+00  0.000000e+00  0.000000e+00
  0.000000e+00  0.000000e+00  0.000000e+00
  0.000000e+00  0.000000e+00  0.000000e+00
  0.000000e+00  0.000000e+00  0.000000e+00
  0.000000e+00  0.000000e+00  0.000000e+00
  0.000000e+00  0.000000e+00  0.000000e+00
  0.000000e+00  0.000000e+00  0.000000e+00
  0.000000e+00  0.000000e+00  0.000000e+00
  0.000000e+00  0.000000e+00  0.000000e+00
  0.000000e+00  0.000000e+00  0.000000e+00
  0.000000e+00  0.000000e+00  0.000000e+00
  0.000000e+00  0.000000e+00  0.000000e+00
  0.000000e+00  0.000000e+00  0.000000e+00
  0.000000e+00  0.000000e+00  0.000000e+00
  0.000000e+00  0.000000e+00  0.000000e+00
  0.000000e+00  0.000000e+00  0.000000e+00
  0.000000e+00  0.000000e+00  0.000000e+00
  0.000000e+00  0.000000e+00  0.000000e+00
  0.000000e+00  0.000000e+00  0.000000e+00
  0.000000e+00  0.000000e+00  0.000000e+00
  0.000000e+00  0.000000e+00  0.000000e+00
  0.000000e+00  0.000000e+00  0.000000e+00
  0.000000e+00  0.000000e+00  0.000000e+00
  0.000000e+00  0.000000e+00  0.000000e+00
  0.000000e+00  0.000000e+00  0.000000e+00
  0.000000e+00  0.000000e+00  0.000000e+00
  0.000000e+00  0.000000e+00  0.000000e+00
  0.000000e+00  0.000000e+00  0.000000e+00
  0.000000e+00  0.000000e+00  0.000000e+00
  0.000000e+00  0.000000e+00  0.000000e+00
  0.000000e+00  0.000000e+00  0.000000e+00
  0.000000e+00  0.000000e+00  0.000000e+00
  0.000000e+00  0.000000e+00  0.000000e+00
  0.000000e+00  0.000000e+00  0.000000e+00
  0.000000e+00  0.000000e+00  0.000000e+00
  0.000000e+00  0.000000e+00  0.000000e+00
  0.000000e+00  0.000000e+00  0.000000e+00
  0.000000e+00  0.000000e+00  0.000000e+00
  0.000000e+00  0.000000e+00  0.000000e+00
  0.000000e+00  0.000000e+00  0.000000e+00
  0.000000e+00  0.000000e+00  0.000000e+00
  0.000000e+00  0.000000e+00  0.000000e+00
  0.000000e+00  0.000000e+00  0.000000e+00
  0.000000e+00  0.000000e+00  0.000000e+00
  0.000000e+00  0.000000e+00  0.000000e+00
  0.000000e+00  0.000000e+00  0.000000e+00
  0.000000e+00  0.000000e+00  0.000000e+00
  0.000000e+00  0.000000e+00  0.000000e+00
  0.000000e+00  0.000000e+00  0.000000e+00
  0.000000e+00  0.000000e+00  0.000000e+00
  0.000000e+00  0.000000e+00  0.000000e+00
  0.000000e+00  0.000000e+00  0.000000e+00
  0.000000e+00  0.000000e+00  0.000000e+00
  0.000000e+00  0.000000e+00 -0.000000e+00
  0.000000e+00  0.000000e+00  0.000000e+00
  0.000000e+00  0.000000e+00  0.000000e+00
  0.000000e+00  0.000000e+00  0.000000e+00
  0.000000e+00  0.000000e+00  0.000000e+00
  0.000000e+00  0.000000e+00 -0.000000e+00
  0.000000e+00  0.000000e+00  0.000000e+00
  0.000000e+00  0.000000e+00  0.000000e+00
  0.000000e+00  0.000000e+00  0.000000e+00
  0.000000e+00  0.000000e+00  0.000000e+00
  0.000000e+00  0.000000e+00 -0.000000e+00
  0.000000e+00  0.000000e+00  0.000000e+00
  0.000000e+00  0.000000e+00  0.000000e+00
  0.000000e+00  0.000000e+00  0.000000e+00
  0.000000e+00  0.000000e+00  0.000000e+00
  0.000000e+00  0.000000e+00  0.000000e+00
  0.000000e+00  0.000000e+00 -0.000000e+00
  0.000000e+00  0.000000e+00  0.000000e+00
  0.000000e+00  0.000000e+00  0.000000e+00
  0.000000e+00  0.000000e+00  0.000000e+00
  0.000000e+00  0.000000e+00  0.000000e+00
  0.000000e+00  0.000000e+00  0.000000e+00
  0.000000e+00  0.000000e+00  0.000000e+00
  0.000000e+00  0.000000e+00  0.000000e+00
  0.000000e+00  0.000000e+00  0.000000e+00
  0.000000e+00  0.000000e+00  0.000000e+00
  0.000000e+00  0.000000e+00  0.000000e+00
  0.000000e+00  0.000000e+00  0.000000e+00
  0.000000e+00  0.000000e+00  0.000000e+00
  0.000000e+00  0.000000e+00  0.000000e+00
  0.000000e+00  0.000000e+00  0.000000e+00
  0.000000e+00  0.000000e+00  0.000000e+00
  0.000000e+00  0.000000e+00  0.000000e+00
  0.000000e+00  0.000000e+00  0.000000e+00
  0.000000e+00  0.000000e+00  0.000000e+00
  0.000000e+00  0.000000e+00  0.000000e+00
  0.000000e+00  0.000000e+00  0.000000e+00
  0.000000e+00  0.000000e+00  0.000000e+00
  0.000000e+00  0.000000e+00  0.000000e+00
  0.000000e+00  0.000000e+00  0.000000e+00
  0.000000e+00  0.000000e+00  0.000000e+00
  0.000000e+00  0.000000e+00  0.000000e+00
  0.000000e+00  0.000000e+00  0.000000e+00
  0.000000e+00  0.000000e+00  0.000000e+00
  0.000000e+00  0.000000e+00  0.000000e+00
  0.000000e+00  0.000000e+00  0.000000e+00
  0.000000e+00  0.000000e+00  0.000000e+00
  0.000000e+00  0.000000e+00  0.000000e+00
  0.000000e+00  0.000000e+00  0.000000e+00
  0.000000e+00  0.000000e+00  0.000000e+00
  0.000000e+00  0.000000e+00  0.000000e+00
  0.000000e+00  0.000000e+00  0.000000e+00
  0.000000e+00  0.000000e+00  0.000000e+00
  0.000000e+00  0.000000e+00  0.000000e+00
  0.000000e+00  0.000000e+00  0.000000e+00
  0.000000e+00  0.000000e+00  0.000000e+00
  0.000000e+00  0.000000e+00  0.000000e+00
  0.000000e+00  0.000000e+00  0.000000e+00
  0.000000e+00  0.000000e+00  0.000000e+00
  0.000000e+00  0.000000e+00  0.000000e+00
  0.000000e+00  0.000000e+00  0.000000e+00
  0.000000e+00  0.000000e+00  0.000000e+00
  0.000000e+00  0.000000e+00  0.000000e+00
  0.000000e+00  0.000000e+00  0.000000e+00
  0.000000e+00  0.000000e+00  0.000000e+00
  0.000000e+00  0.000000e+00  0.000000e+00
  0.000000e+00  0.000000e+00  0.000000e+00
  0.000000e+00  0.000000e+00  0.000000e+00
  0.000000e+00  0.000000e+00  0.000000e+00
  0.000000e+00  0.000000e+00  0.000000e+00
  0.000000e+00  0.000000e+00  0.000000e+00
  0.000000e+00  0.000000e+00  0.000000e+00
  0.000000e+00  0.000000e+00  0.000000e+00
  0.000000e+00  0.000000e+00  0.000000e+00
  0.000000e+00  0.000000e+00  0.000000e+00
  0.000000e+00  0.000000e+00  0.000000e+00
  0.000000e+00  0.000000e+00  0.000000e+00
  0.000000e+00  0.000000e+00  0.000000e+00
  0.000000e+00  0.000000e+00  0.000000e+00
  0.000000e+00  0.000000e+00  0.000000e+00
  0.000000e+00  0.000000e+00  0.000000e+00
  0.000000e+00  0.000000e+00  0.000000e+00
  0.000000e+00  0.000000e+00  0.000000e+00
  0.000000e+00  0.000000e+00  0.000000e+00
  0.000000e+00  0.000000e+00  0.000000e+00
  0.000000e+00  0.000000e+00  0.000000e+00
  0.000000e+00  0.000000e+00  0.000000e+00
  0.000000e+00  0.000000e+00  0.000000e+00
  0.000000e+00  0.000000e+00  0.000000e+00
  0.000000e+00  0.000000e+00  0.000000e+00
  0.000000e+00  0.000000e+00  0.000000e+00
  0.000000e+00  0.000000e+00  0.000000e+00
  0.000000e+00  0.000000e+00  0.000000e+00
  0.000000e+00  0.000000e+00  0.000000e+00
  0.000000e+00  0.000000e+00  0.000000e+00
  0.000000e+00  0.000000e+00  0.000000e+00
  0.000000e+00  0.000000e+00  0.000000e+00
  0.000000e+00  0.000000e+00  0.000000e+00
  0.000000e+00  0.000000e+00  0.000000e+00
  0.000000e+00  0.000000e+00  0.000000e+00
  0.000000e+00  0.000000e+00  0.000000e+00
  0.000000e+00  0.000000e+00  0.000000e+00
  0.000000e+00  0.000000e+00  0.000000e+00
  0.000000e+00  0.000000e+00  0.000000e+00
  0.000000e+00  0.000000e+00  0.000000e+00
  0.000000e+00  0.000000e+00  0.000000e+00
  0.000000e+00  0.000000e+00  0.000000e+00
  0.000000e+00  0.000000e+00  0.000000e+00
  0.000000e+00  0.000000e+00  0.000000e+00
  0.000000e+00  0.000000e+00  0.000000e+00
  0.000000e+00  0.000000e+00  0.000000e+00
  0.000000e+00  0.000000e+00  0.000000e+00
  0.000000e+00  0.000000e+00  0.000000e+00
  0.000000e+00  0.000000e+00  0.000000e+00
  0.000000e+00  0.000000e+00  0.000000e+00
  0.000000e+00  0.000000e+00  0.000000e+00
  0.000000e+00  0.000000e+00  0.000000e+00
  0.000000e+00  0.000000e+00  0.000000e+00
  0.000000e+00  0.000000e+00  0.000000e+00
  0.000000e+00  0.000000e+00  0.000000e+00
  0.000000e+00  0.000000e+00  0.000000e+00
  0.000000e+00  0.000000e+00  0.000000e+00
  0.000000e+00  0.000000e+00  0.000000e+00
  0.000000e+00  0.000000e+00  0.000000e+00
  0.000000e+00  0.000000e+00  0.000000e+00
  0.000000e+00  0.000000e+00  0.000000e+00
  0.000000e+00  0.000000e+00  0.000000e+00
  0.000000e+00  0.000000e+00  0.000000e+00
  0.000000e+00  0.000000e+00  0.000000e+00
  0.000000e+00  0.000000e+00  0.000000e+00
  0.000000e+00  0.000000e+00  0.000000e+00
  0.000000e+00  0.000000e+00  0.000000e+00
  0.000000e+00  0.000000e+00  0.000000e+00
  0.000000e+00  0.000000e+00  0.000000e+00
  0.000000e+00  0.000000e+00  0.000000e+00
  0.000000e+00  0.000000e+00  0.000000e+00
  0.000000e+00  0.000000e+00  0.000000e+00
  0.000000e+00  0.000000e+00  0.000000e+00
  0.000000e+00  0.000000e+00  0.000000e+00
  0.000000e+00  0.000000e+00  0.000000e+00
  0.000000e+00  0.000000e+00  0.000000e+00
  0.000000e+00  0.000000e+00  0.000000e+00
  0.000000e+00  0.000000e+00  0.000000e+00
  0.000000e+00  0.000000e+00  0.000000e+00
  0.000000e+00  0.000000e+00  0.000000e+00
  0.000000e+00  0.000000e+00  0.000000e+00
  0.000000e+00  0.000000e+00  0.000000e+00
  0.000000e+00  0.000000e+00  0.000000e+00
  0.000000e+00  0.000000e+00  0.000000e+00
  0.000000e+00  0.000000e+00  0.000000e+00
  0.000000e+00  0.000000e+00  0.000000e+00
  0.000000e+00  0.000000e+00  0.000000e+00
  0.000000e+00  0.000000e+00  0.000000e+00
  0.000000e+00  0.000000e+00  0.000000e+00
  0.000000e+00  0.000000e+00  0.000000e+00
  0.000000e+00  0.000000e+00  0.000000e+00
  0.000000e+00  0.000000e+00  0.000000e+00
  0.000000e+00  0.000000e+00  0.000000e+00
  0.000000e+00  0.000000e+00  0.000000e+00
  0.000000e+00  0.000000e+00  0.000000e+00
  0.000000e+00  0.000000e+00  0.000000e+00
  0.000000e+00  0.000000e+00  0.000000e+00
  0.000000e+00  0.000000e+00  0.000000e+00
  0.000000e+00  0.000000e+00  0.000000e+00
  0.000000e+00  0.000000e+00  0.000000e+00
  0.000000e+00  0.000000e+00  0.000000e+00
  0.000000e+00  0.000000e+00  0.000000e+00
  0.000000e+00  0.000000e+00  0.000000e+00
  0.000000e+00  0.000000e+00  0.000000e+00
  0.000000e+00  0.000000e+00  0.000000e+00
  0.000000e+00  0.000000e+00  0.000000e+00
  0.000000e+00  0.000000e+00  0.000000e+00
  0.000000e+00  0.000000e+00  0.000000e+00
  0.000000e+00  0.000000e+00  0.000000e+00
  0.000000e+00  0.000000e+00  0.000000e+00
  0.000000e+00  0.000000e+00  0.000000e+00
  0.000000e+00  0.000000e+00  0.000000e+00
  0.000000e+00  0.000000e+00  0.000000e+00
  0.000000e+00  0.000000e+00  0.000000e+00
  0.000000e+00  0.000000e+00  0.000000e+00
  0.000000e+00  0.000000e+00  0.000000e+00
  0.000000e+00  0.000000e+00  0.000000e+00
  0.000000e+00  0.000000e+00  0.000000e+00
  0.000000e+00  0.000000e+00  0.000000e+00
  0.000000e+00  0.000000e+00  0.000000e+00
  0.000000e+00  0.000000e+00  0.000000e+00
  0.000000e+00  0.000000e+00  0.000000e+00
  0.000000e+00  0.000000e+00  0.000000e+00
  0.000000e+00  0.000000e+00  0.000000e+00
  0.000000e+00  0.000000e+00  0.000000e+00
  0.000000e+00  0.000000e+00  0.000000e+00
  0.000000e+00  0.000000e+00  0.000000e+00
  0.000000e+00  0.000000e+00  0.000000e+00
  0.000000e+00  0.000000e+00  0.000000e+00
  0.000000e+00  0.000000e+00  0.000000e+00
  0.000000e+00  0.000000e+00  0.000000e+00
  0.000000e+00  0.000000e+00  0.000000e+00
  0.000000e+00  0.000000e+00  0.000000e+00
  0.000000e+00  0.000000e+00  0.000000e+00
  0.000000e+00  0.000000e+00  0.000000e+00
  0.000000e+00  0.000000e+00  0.000000e+00
  0.000000e+00  0.000000e+00  0.000000e+00
  0.000000e+00  0.000000e+00  0.000000e+00
  0.000000e+00  0.000000e+00  0.000000e+00
  0.000000e+00  0.000000e+00  0.000000e+00
  0.000000e+00  0.000000e+00  0.000000e+00
  0.000000e+00  0.000000e+00  0.000000e+00
  0.000000e+00  0.000000e+00  0.000000e+00
  0.000000e+00  0.000000e+00  0.000000e+00
  0.000000e+00  0.000000e+00  0.000000e+00
  0.000000e+00  0.000000e+00  0.000000e+00
  0.000000e+00  0.000000e+00  0.000000e+00
  0.000000e+00  0.000000e+00  0.000000e+00
  0.000000e+00  0.000000e+00  0.000000e+00
  0.000000e+00  0.000000e+00  0.000000e+00
  0.000000e+00  0.000000e+00  0.000000e+00
  0.000000e+00  0.000000e+00  0.000000e+00
  0.000000e+00  0.000000e+00  0.000000e+00
  0.000000e+00  0.000000e+00  0.000000e+00
  0.000000e+00  0.000000e+00  0.000000e+00
  0.000000e+00  0.000000e+00  0.000000e+00
  0.000000e+00  0.000000e+00  0.000000e+00
  0.000000e+00  0.000000e+00  0.000000e+00
  0.000000e+00  0.000000e+00  0.000000e+00
  0.000000e+00  0.000000e+00  0.000000e+00
  0.000000e+00  0.000000e+00  0.000000e+00
  0.000000e+00  0.000000e+00  0.000000e+00
  0.000000e+00  0.000000e+00  0.000000e+00
  0.000000e+00  0.000000e+00  0.000000e+00
  0.000000e+00  0.000000e+00  0.000000e+00
  0.000000e+00  0.000000e+00  0.000000e+00
  0.000000e+00  0.000000e+00  0.000000e+00
  0.000000e+00  0.000000e+00  0.000000e+00
  0.000000e+00  0.000000e+00  0.000000e+00
  0.000000e+00  0.000000e+00  0.000000e+00
  0.000000e+00  0.000000e+00  0.000000e+00
  0.000000e+00  0.000000e+00  0.000000e+00
  0.000000e+00  0.000000e+00  0.000000e+00
  0.000000e+00  0.000000e+00  0.000000e+00
  0.000000e+00  0.000000e+00 -0.000000e+00
  0.000000e+00  0.000000e+00  0.000000e+00
  0.000000e+00  0.000000e+00  0.000000e+00
  0.000000e+00  0.000000e+00 -0.000000e+00
  0.000000e+00  0.000000e+00  0.000000e+00
  0.000000e+00  0.000000e+00  0.000000e+00
  0.000000e+00  0.000000e+00  0.000000e+00
  0.000000e+00  0.000000e+00  0.000000e+00
  0.000000e+00  0.000000e+00  0.000000e+00
  0.000000e+00  0.000000e+00  0.000000e+00
  0.000000e+00  0.000000e+00  0.000000e+00
  0.000000e+00  0.000000e+00  0.000000e+00
  0.000000e+00  0.000000e+00  0.000000e+00
  0.000000e+00  0.000000e+00  0.000000e+00
  0.000000e+00  0.000000e+00  0.000000e+00
  0.000000e+00  0.000000e+00  0.000000e+00
  0.000000e+00  0.000000e+00 -0.000000e+00
  0.000000e+00  0.000000e+00  0.000000e+00
  0.000000e+00  0.000000e+00  0.000000e+00
  0.000000e+00  0.000000e+00  0.000000e+00
  0.000000e+00  0.000000e+00  0.000000e+00
  0.000000e+00  0.000000e+00  0.000000e+00
  0.000000e+00  0.000000e+00  0.000000e+00
  0.000000e+00  0.000000e+00  0.000000e+00
  0.000000e+00  0.000000e+00  0.000000e+00
  0.000000e+00  0.000000e+00  0.000000e+00
  0.000000e+00  0.000000e+00  0.000000e+00
  0.000000e+00  0.000000e+00  0.000000e+00
  0.000000e+00  0.000000e+00  0.000000e+00
  0.000000e+00  0.000000e+00  0.000000e+00
  0.000000e+00  0.000000e+00  0.000000e+00
  0.000000e+00  0.000000e+00 -0.000000e+00
  0.000000e+00  0.000000e+00  0.000000e+00
  0.000000e+00  0.000000e+00  0.000000e+00
  0.000000e+00  0.000000e+00  0.000000e+00
  0.000000e+00  0.000000e+00  0.000000e+00
  0.000000e+00  0.000000e+00  0.000000e+00
  0.000000e+00  0.000000e+00  0.000000e+00
  0.000000e+00  0.000000e+00  0.000000e+00
  0.000000e+00  0.000000e+00  0.000000e+00
  0.000000e+00  0.000000e+00  0.000000e+00
  0.000000e+00  0.000000e+00  0.000000e+00
  0.000000e+00  0.000000e+00  0.000000e+00
  0.000000e+00  0.000000e+00  0.000000e+00
  0.000000e+00  0.000000e+00  0.000000e+00
  0.000000e+00  0.000000e+00 -0.000000e+00
  0.000000e+00  0.000000e+00  0.000000e+00
  0.000000e+00  0.000000e+00  0.000000e+00
  0.000000e+00  0.000000e+00  0.000000e+00
  0.000000e+00  0.000000e+00  0.000000e+00
  0.000000e+00  0.000000e+00  0.000000e+00
  0.000000e+00  0.000000e+00  0.000000e+00
  0.000000e+00  0.000000e+00  0.000000e+00
  0.000000e+00  0.000000e+00  0.000000e+00
  0.000000e+00  0.000000e+00  0.000000e+00
  0.000000e+00  0.000000e+00  0.000000e+00
  0.000000e+00  0.000000e+00  0.000000e+00
  0.000000e+00  0.000000e+00  0.000000e+00
  0.000000e+00  0.000000e+00  0.000000e+00
  0.000000e+00  0.000000e+00  0.000000e+00
  0.000000e+00  0.000000e+00  0.000000e+00
  0.000000e+00  0.000000e+00  0.000000e+00
  0.000000e+00  0.000000e+00  0.000000e+00
  0.000000e+00  0.000000e+00  0.000000e+00
  0.000000e+00  0.000000e+00  0.000000e+00
  0.000000e+00  0.000000e+00  0.000000e+00
  0.000000e+00  0.000000e+00  0.000000e+00
  0.000000e+00  0.000000e+00  0.000000e+00
  0.000000e+00  0.000000e+00  0.000000e+00
  0.000000e+00  0.000000e+00  0.000000e+00
  0.000000e+00  0.000000e+00  0.000000e+00
  0.000000e+00  0.000000e+00  0.000000e+00
  0.000000e+00  0.000000e+00  0.000000e+00
  7.992869e+02  3.099556e+02  2.739852e+02
  8.083498e+02  2.955917e+02  2.630516e+02
  8.203625e+02  2.830291e+02  2.385368e+02
  0.000000e+00  0.000000e+00  0.000000e+00
  0.000000e+00  0.000000e+00  0.000000e+00
  8.212678e+02  2.802043e+02  2.387565e+02
  7.789277e+02  3.429680e+02  2.926511e+02
  7.301448e+02  3.971011e+02  3.452526e+02
  0.000000e+00  0.000000e+00  0.000000e+00
  0.000000e+00  0.000000e+00  0.000000e+00
  8.220235e+02  2.765008e+02  2.404678e+02
  8.195121e+02  2.852062e+02  2.388666e+02
  7.342560e+02  3.921639e+02  3.421632e+02
  7.259889e+02  4.058233e+02  3.438714e+02
  8.063203e+02  2.988963e+02  2.655344e+02
  7.288262e+02  4.011917e+02  3.433041e+02
  7.905641e+02  3.208318e+02  2.864879e+02
  8.216548e+02  2.793793e+02  2.383919e+02
  0.000000e+00  0.000000e+00  0.000000e+00
  7.259525e+02  4.077411e+02  3.416727e+02
  7.337591e+02  3.952458e+02  3.396739e+02
  7.798763e+02  3.422628e+02  2.909451e+02
  7.874965e+02  3.254071e+02  2.897577e+02
  8.207756e+02  2.805364e+02  2.400558e+02
  8.221095e+02  2.772047e+02  2.393606e+02
  7.291371e+02  4.037812e+02  3.395879e+02
  7.382781e+02  3.902771e+02  3.356028e+02
  8.183897e+02  2.847103e+02  2.432661e+02
  0.000000e+00  0.000000e+00  0.000000e+00
  8.056716e+02  3.029319e+02  2.629174e+02
  7.339967e+02  3.982403e+02  3.356391e+02
  7.889441e+02  3.250719e+02  2.861737e+02
  7.290482e+02  4.065868e+02  3.364163e+02
  7.832804e+02  3.376961e+02  2.871118e+02
  7.377996e+02  3.935885e+02  3.327760e+02